{
  "inchi": "InChI=1S/C8H10N4O2/c1-10-4-9-6-5(10)7(13)12(3)8(14)11(6)2/h4H,1-3H3",
  "psychonaut_name": "Caffeine",
  "tripsit_name": null,
  "synonyms": [
    "CAFFEINE ANHYDROUS [WHO-IP]",
    "Caffeine 100 microg/mL in Methanol",
    "Caffein",
    "1,7-Trimethyl-2,6-dioxopurine",
    "SCHEMBL5671",
    "Spectrum_001301",
    "CAFFEINE [HSDB]",
    "Caffedrine",
    "Caffeine solution, analytical standard, 1.0 mg/mL in methanol",
    "NCGC00090699-05",
    "Nodaca",
    "BRD-K02404261-001-07-6",
    "FEMCET COMPONENT CAFFEINE",
    "CAFFEINE COMPONENT OF FIORINAL",
    "CAFFEINE [IARC]",
    "Cafipel",
    "Cafecon",
    "BSPBio_001921",
    "DB-023002",
    "NCGC00090699-03",
    "LP00228",
    "NCGC00090699-02",
    "TRIAD COMPONENT CAFFEINE",
    "NSC 5036",
    "Coffeine",
    "N2379",
    "IDI1_000730",
    "ACon1_000085",
    "Caffeine, SAJ special grade, >=98.5%",
    "CAFFEINE COMPONENT OF FIORICET",
    "1,3,7-Trimethyl-3,7-dihydro-1H-purine-2,6-dione #",
    "Caffeine, BioXtra",
    "CAFFEINE [USP-RS]",
    "MLS001055341",
    "Caffeina",
    "CAFFEINE COMPONENT OF INVAGESIC FORTE",
    "CAFFEINE COMPONENT OF ANOQUAN",
    "KBio2_004349",
    "HSDB 36",
    "2a3b",
    "Caffeine, Pharmaceutical Secondary Standard; Certified Reference Material",
    "DB00201",
    "Anacin",
    "ESGIC COMPONENT CAFFEINE",
    "NSC755917",
    "TREZIX COMPONENT CAFFEINE",
    "HMS3372J18",
    "THEOPHYLLINE MONOHYDRATE IMPURITY A [EP IMPURITY]",
    "1H-Purine-2,6-dione, 3,7-dihydro-1,3,7-trimethyl-",
    "CAFFEINE [EP MONOGRAPH]",
    "HMS1920I09",
    "NCGC00015208-07",
    "Coffein [German]",
    "114303-55-8",
    "Hycomine",
    "Spectrum5_000423",
    "NCGC00090699-04",
    "NSC5036",
    "caffenium",
    "NCGC00260913-01",
    "SPBio_001222",
    "SK 65 Compound",
    "SMR000326667",
    "3,7-Dihydro-1,3,7-trimethyl-1H-purin-2,6-dion",
    "Caffeine, British Pharmacopoeia (BP) Reference Standard",
    "NCGC00254057-01",
    "BRD-K02404261-001-03-5",
    "Lopac-C-0750",
    "Caffeine (USP)",
    "SPECTRUM1500155",
    "Koffein [German]",
    "Coffein",
    "UNII-3G6A5W338E",
    "Caffeine Melting Point Standard, Pharmaceutical Secondary Standard; Certified Reference Material",
    "AC-12774",
    "Dexitac",
    "07E4FB58-FD79-4175-8E3D-05BF96954522",
    "CCG-38825",
    "NSC-755917",
    "INVAGESIC COMPONENT CAFFEINE",
    "N1379",
    "SDCCGMLS-0064595.P002",
    "CAFFEINE [II]",
    "DIMENHYDRINATE IMPURITY C",
    "ORPHENGESIC FORTE COMPONENT CAFFEINE",
    "CAFFEINE COMPONENT OF LANORINAL",
    "MIGERGOT COMPONENT CAFFEINE",
    "NCGC00015208-13",
    "Caffeine 2000 microg/mL in Water:Methanol (81:19 g/g)",
    "Refresh'n",
    "NCGC00090699-09",
    "NCGC00090699-08",
    "CAFFEINE COMPONENT OF DARVON COMPOUND",
    "Q60235",
    "Respia (TN)",
    "Miudol",
    "1,7-Trimethylxanthine",
    "CAFFEINE [FHFI]",
    "Caffeine 1.0 mg/ml in Methanol",
    "THEOPHYLLINE IMPURITY A [EP IMPURITY]",
    "CAFFEINE COMPONENT OF ORPHENGESIC",
    "AB00051930-09",
    "CAFFEINE COMPONENT OF ESGIC",
    "NCGC00015208-20",
    "Methyltheobromide",
    "1,3,7-trimethyl-3,7-dihydropurine-2,6-dione",
    "C 0750",
    "NoDoz Caplets and Chewable Tablets",
    "Bio1_000962",
    "DHC PLUS COMPONENT CAFFEINE",
    "Caffeinum",
    "CAFFEINE [FCC]",
    "CAFFEINE [INCI]",
    "HMS3260N17",
    "EU-0100228",
    "NCGC00168808-02",
    "1H-Purine-2, 3,7-dihydro-1,3,7-trimethyl-",
    "HMS3715D13",
    "Caffeine (natural)",
    "1,3,7-Trimethyl-3,7-dihydro-1H-purine-2,6-dione",
    "Monomethyl derivative of Theophylline",
    "NCGC00259234-01",
    "CAFFEINE [USP MONOGRAPH]",
    "3G6A5W338E",
    "Caffeine solution, 1.0 mg/mL in methanol, ampule of 1 mL, certified reference material",
    "component of P-A-C Compound (Salt/Mix)",
    "Z112207564",
    "NCGC00015208-10",
    "7-methyl Theophylline",
    "Durvitan",
    "HMS3435F10",
    "Alert-pep",
    "Pharmakon1600-01500155",
    "PDSP1_001016",
    "Kofein",
    "Cafeina",
    "CAFERGOT COMPONENT CAFFEINE",
    "Methylxanthine theophylline",
    "Tox21_500228",
    "Caffeine, powder, ReagentPlus(R)",
    "MLS001056714",
    "KBio1_000730",
    "CAFFEINE COMPONENT OF TRIAD",
    "3,3,7-trimethyl-1H-purine-2,6-dione",
    "Synalgos",
    "Mettler-Toledo Calibration substance ME 18872, Caffeine, analytical standard, for the calibration of the thermosystem 900, traceable to primary standards (LGC)",
    "Cafergot (Salt/Mix)",
    "AB00051930_10",
    "Caffeine, anhydrous",
    "DTXSID0020232",
    "1,3,7-trimethyl-1H-purine-2,6(3H,7H)-dione",
    "HMS2091O11",
    "Caffeine, PharmaGrade, EP, Manufactured under appropriate GMP controls for pharma or biopharmaceutical production",
    "DivK1c_000730",
    "3,7-Dihydro-1,3,7-trimethyl-1H-purine-2,6-dione",
    "NCGC00015208-12",
    "NINDS_000730",
    "Caffeine, anhydrous, 99%, FCC, FG",
    "BIM-0050216.0001",
    "caffeine",
    "Spectrum2_001261",
    "Probes2_000128",
    "NCGC00015208-18",
    "NCGC00015208-17",
    "SR-01000075187-1",
    "CAFFEINE [VANDF]",
    "CS-M0795",
    "CAFFEINE COMPONENT OF NORGESIC",
    "WLN: T56 BN DN FNVNVJ B1 F1 H1",
    "SR-01000075187-7",
    "1,3,7-trimethyl-2,3,6,7-tetrahydro-1H-purine-2,6-dione",
    "cafeine",
    "FT-0664195",
    "Xanthine,3,7-trimethyl",
    "Xanthine, 1,3,7-trimethyl",
    "5-26-13-00558 (Beilstein)",
    "Theophylline, 7-methyl",
    "KBioGR_002325",
    "SYNALGOS-DC-A COMPONENT CAFFEINE",
    "Methyltheobromine",
    "NSC-5036",
    "BIDD:PXR0172",
    "Caffeine, European Pharmacopoeia (EP) Reference Standard",
    "Caffeine",
    "HMS502E12",
    "NCGC00015208-15",
    "Caffeine for system suitability, European Pharmacopoeia (EP) Reference Standard",
    "CAFFEINE COMPONENT OF SYNALGOS-DC-A",
    "Stim",
    "SYNALGOS-DC COMPONENT CAFFEINE",
    "CAFFEINUM [HPUS]",
    "Caffeine melting point standard",
    "Tri-Aqua",
    "Anhydrous caffeine (TN)",
    "Anacin Maximum Strength",
    "GTPL407",
    "component of Dilone (Salt/Mix)",
    "Theine, methyltheobromine",
    "Bio1_000473",
    "AKOS000121334",
    "Caffeina [Italian]",
    "ANHYDROUS CAFFEINE [JAN]",
    "1, 3, 7-Trimethylxanthine",
    "Coffeinum",
    "Nix Nap",
    "Spectrum4_001782",
    "D00528",
    "CAFFEINE [MART.]",
    "NCGC00090699-01",
    "Caffeine, purum, anhydrous, >=99.0% (HPLC)",
    "BIDD:ER0554",
    "Thein",
    "NCGC00015208-06",
    "CAFFEINE ANHYDROUS",
    "SR-01000075187-8",
    "Theobromine, 1-methyl-",
    "FEMA No. 2224",
    "1l7x",
    "EXCEDRIN COMPONENT CAFFEINE",
    "P-A-C Analgesic Tablets",
    "Caffeine, Sigma Reference Standard, vial of 250 mg",
    "MFCD00005758",
    "CHEBI:27732",
    "1,3,7-Trimethylxanthine",
    "Monohydrate Caffeine",
    "CCRIS 1314",
    "FIORINAL COMPONENT CAFFEINE",
    "1,3,7-Trimethyl-2,6-dioxopurine",
    "NCGC00015208-11",
    "AI3-20154",
    "Melting point standard 235-237C, analytical standard",
    "L000155",
    "NCGC00015208-14",
    "Spectrum3_000321",
    "Eldiatric C",
    "bmse000206",
    "Mateina",
    "EINECS 200-362-1",
    "1l5q",
    "ORPHENGESIC COMPONENT CAFFEINE",
    "Quick-Pep",
    "component of A.S.A. Compound (Salt/Mix)",
    "Caffeine [BAN:JAN]",
    "1,3,7-Trimethylpurine-2,6-dione",
    "NCGC00090699-06",
    "SDCCGSBI-0050216.P005",
    "BRN 0017705",
    "1,3,7-trimethyl-2,6-dioxo-1,2,3,6-tetrahydropurine",
    "Theobromine Me",
    "Cafamil",
    "ZINC1084",
    "DSSTox_RID_75448",
    "MEGxp0_001350",
    "NCGC00015208-04",
    "NORGESIC COMPONENT CAFFEINE",
    "58-08-2",
    "BIDD:GT0632",
    "Tox21_201685",
    "CAFFEINE-D3",
    "Anhydrous caffeine (JP15)",
    "CAFFEINE COMPONENT OF DHC PLUS",
    "SK-65 Compound",
    "Caffeine, United States Pharmacopeia (USP) Reference Standard",
    "CAFFEINE COMPONENT OF MIGERGOT",
    "AS-15340",
    "Propoxyphene Compound 65 (Salt/Mix)",
    "HMS2232M13",
    "CAFFEINE COMPONENT OF WIGRAINE",
    "Tox21_300010",
    "1,3,7-trimethyl-1,3,7-trihydropurine-2,6-dione",
    "KBio2_001781",
    "CFF",
    "1-methyl-Theobromine",
    "caffeine (1,3,7-trimethylxanthine)",
    "SR-01000075187-4",
    "7-Methyltheophylline",
    "CAFFEINE COMPONENT OF FEMCET",
    "PDSP1_001235",
    "Propoxyphene Compound 65",
    "DIMENHYDRINATE IMPURITY C [EP IMPURITY]",
    "NCGC00015208-03",
    "CAFFEINE COMPONENT OF EXCEDRIN",
    "TNP00310",
    "F3371-0262",
    "NCGC00015208-29",
    "Vivarin",
    "Theine",
    "Caffeine hydrous",
    "No-Doz",
    "SR-01000075187",
    "SDCCGMLS-0064595.P001",
    "MEDIGESIC PLUS COMPONENT CAFFEINE",
    "CU-01000012617-3",
    "NCGC00168808-01",
    "NCIOpen2_008255",
    "CAFFEINE COMPONENT OF CAFERGOT",
    "DARVON COMPOUND COMPONENT CAFFEINE",
    "Caffeine 10 microg/mL in Methanol",
    "CAFFEINE [WHO-DD]",
    "NCI-C02733",
    "5-26-13-00558 (Beilstein Handbook Reference)",
    "CAFFEINE [ORANGE BOOK]",
    "Theophylline Me",
    "Tirend",
    "MLS001066409",
    "STK177283",
    "BRD-K02404261-001-02-7",
    "CAFFEINE COMPONENT OF ORPHENGESIC FORTE",
    "NCGC00015208-01",
    "CAFFEINE COMPONENT OF SYNALGOS-DC",
    "Phensal",
    "NCGC00015208-02",
    "NCGC00015208-08",
    "MolMap_000054",
    "C07481",
    "KBio2_006917",
    "CHEMBL113",
    "3,7-Dihydro-1,3,7-trimethyl-1H-purin-2,6-dion (coffein)",
    "Organex",
    "teina",
    "Caffeine [USP:BAN:JAN]",
    "SBI-0050216.P004",
    "C8H10N4O2",
    "Koffein",
    "CAFFEINE [MI]",
    "BDBM10849",
    "Lopac0_000228",
    "1-methyltheobromine",
    "Caffeine, meets USP testing specifications, anhydrous",
    "EC 200-362-1",
    "3,7-dihydro-1,3,7-trimethyl-1H-purine",
    "FIORICET COMPONENT CAFFEINE",
    "PDSP2_001219",
    "Caffeine, anhydrous, tested according to Ph.Eur.",
    "component of Percodan (Salt/Mix)",
    "COFFEINUM [WHO-IP LATIN]",
    "Probes1_000150",
    "Anhydrous caffeine (JP17)",
    "Bayer Select Headache Pain (Salt/Mix)",
    "ANOQUAN COMPONENT CAFFEINE",
    "WIGRAINE COMPONENT CAFFEINE",
    "Kofein [Czech]",
    "3,7-dihydro-1,3,7-trimethyl-1H-purine (9CI)",
    "Caffeine, synthetic",
    "3g6m",
    "DHCplus",
    "1gfz",
    "CAFFEINE COMPONENT OF MEDIGESIC PLUS",
    "Caffine",
    "INVAGESIC FORTE COMPONENT CAFFEINE",
    "NCGC00090699-07",
    "PDSP2_001000",
    "PENTOXIFYLLINE IMPURITY F [EP IMPURITY]",
    "DSSTox_GSID_20232",
    "CAFFEINE COMPONENT OF INVAGESIC",
    "Caffeine melting point standard, United States Pharmacopeia (USP) Reference Standard",
    "NCGC00015208-16",
    "Bio1_001451",
    "A.S.A. and Codeine Compound",
    "KBioSS_001781",
    "KBio3_001141",
    "CAS-58-08-2",
    "NCGC00015208-05",
    "Caffeine, certified reference material, TraceCERT(R)",
    "CAFFEINE [WHO-IP]",
    "LANORINAL COMPONENT CAFFEINE",
    "Guaranine",
    "DSSTox_CID_232",
    "Anhydrous caffeine"
  ],
  "distances": [
    0.0,
    15.3470104972,
    15.4748217448,
    16.5527268851,
    16.5527268851,
    28.4175303338,
    28.4175303338,
    30.4213363059,
    30.891909274,
    31.4358904751,
    31.8398022961,
    31.8398022961,
    32.833880683,
    33.131155457,
    33.166056514
  ],
  "indices": [
    685,
    708,
    90,
    306,
    595,
    247,
    763,
    484,
    552,
    328,
    106,
    678,
    435,
    424,
    204
  ],
  "name": "psyc_Caffeine",
  "svg": "psyc_Caffeine.svg",
  "sim": [
    {
      "name": "trip_caffeine",
      "psychonaut_name": null,
      "tripsit_name": "caffeine",
      "dist": 0.0
    },
    {
      "name": "trip_theobromine",
      "psychonaut_name": null,
      "tripsit_name": "theobromine",
      "dist": 15.3470104972
    },
    {
      "name": "psyc_8-Chlorotheophylline",
      "psychonaut_name": "8-Chlorotheophylline",
      "tripsit_name": null,
      "dist": 15.4748217448
    },
    {
      "name": "psyc_Theacrine",
      "psychonaut_name": "Theacrine",
      "tripsit_name": null,
      "dist": 16.5527268851
    },
    {
      "name": "trip_theacrine",
      "psychonaut_name": null,
      "tripsit_name": "theacrine",
      "dist": 16.5527268851
    },
    {
      "name": "psyc_Nicotine",
      "psychonaut_name": "Nicotine",
      "tripsit_name": null,
      "dist": 28.4175303338
    },
    {
      "name": "trip_nicotine",
      "psychonaut_name": null,
      "tripsit_name": "nicotine",
      "dist": 28.4175303338
    },
    {
      "name": "trip_mbzp",
      "psychonaut_name": null,
      "tripsit_name": "mbzp",
      "dist": 30.4213363059
    },
    {
      "name": "trip_mephenmetrazine",
      "psychonaut_name": null,
      "tripsit_name": "mephenmetrazine",
      "dist": 30.891909274
    },
    {
      "name": "trip_mephtetramine",
      "psychonaut_name": null,
      "tripsit_name": "mephtetramine",
      "dist": 31.4358904751
    },
    {
      "name": "psyc_Aniracetam",
      "psychonaut_name": "Aniracetam",
      "tripsit_name": null,
      "dist": 31.8398022961
    },
    {
      "name": "trip_aniracetam",
      "psychonaut_name": null,
      "tripsit_name": "aniracetam",
      "dist": 31.8398022961
    },
    {
      "name": "trip_methoxypiperamide",
      "psychonaut_name": null,
      "tripsit_name": "methoxypiperamide",
      "dist": 32.833880683
    },
    {
      "name": "trip_4-ho-mpmi",
      "psychonaut_name": null,
      "tripsit_name": "4-ho-mpmi",
      "dist": 33.131155457
    },
    {
      "name": "psyc_MCPP",
      "psychonaut_name": "MCPP",
      "tripsit_name": null,
      "dist": 33.166056514
    }
  ]
}