{
  "name": "Caffeine",
  "effects": [
    "Motivation enhancement",
    "Memory enhancement",
    "Nausea",
    "Headache",
    "Vasoconstriction",
    "Frequent urination",
    "Dizziness",
    "Physical euphoria",
    "Bronchodilation",
    "Thought acceleration",
    "Increased libido",
    "Ego inflation",
    "Analysis enhancement",
    "Cognitive euphoria",
    "Depression",
    "Anxiety",
    "Irritability",
    "Thought deceleration",
    "Stimulation",
    "Wakefulness",
    "Appetite suppression",
    "Increased heart rate",
    "Increased blood pressure",
    "Increased perspiration",
    "Increased music appreciation",
    "Teeth grinding",
    "Compulsive redosing",
    "Cognitive fatigue",
    "Cognitive dysphoria",
    "Focus intensification",
    "Tactile intensification",
    "Stamina intensification",
    "Motivation depression"
  ],
  "dangerousInteractions": null,
  "unsafeInteractions": null,
  "uncertainInteractions": [
    "DOx",
    "25x-NBOMe",
    "\u0391MT",
    "PCP",
    "Substituted amphetamines",
    "MDMA",
    "Cocaine"
  ],
  "addictionPotential": "produces dependence with chronic use and has a low abuse potential",
  "class.psychoactive": [
    "Stimulants"
  ],
  "class.chemical": [
    "Xanthines"
  ],
  "roa.oral.name": "oral",
  "roa.oral.duration.comeup": null,
  "roa.oral.duration.onset.min": 5.0,
  "roa.oral.duration.onset.max": 10.0,
  "roa.oral.duration.onset.units": "minutes",
  "roa.oral.duration.peak.min": 1.0,
  "roa.oral.duration.peak.max": 2.0,
  "roa.oral.duration.peak.units": "hours",
  "roa.oral.duration.offset.min": 6.0,
  "roa.oral.duration.offset.max": 10.0,
  "roa.oral.duration.offset.units": "hours",
  "roa.oral.duration.afterglow.min": 2.0,
  "roa.oral.duration.afterglow.max": 4.0,
  "roa.oral.duration.afterglow.units": "hours",
  "roa.oral.duration.total.min": 2.0,
  "roa.oral.duration.total.max": 5.0,
  "roa.oral.duration.total.units": "hours",
  "roa.oral.duration.duration": null,
  "roa.oral.dose.threshold": 10.0,
  "roa.oral.dose.light.min": 20.0,
  "roa.oral.dose.light.max": 50.0,
  "roa.oral.dose.common.min": 50.0,
  "roa.oral.dose.common.max": 150.0,
  "roa.oral.dose.strong.min": 150.0,
  "roa.oral.dose.strong.max": 500.0,
  "roa.oral.dose.heavy": 500.0,
  "roa.oral.dose.units": "mg",
  "roa.sublingual": null,
  "roa.buccal": null,
  "roa.insufflated": null,
  "roa.rectal": null,
  "roa.transdermal": null,
  "roa.subcutaneous": null,
  "roa.intramuscular": null,
  "roa.intravenous": null,
  "roa.smoked": null,
  "roa.oral.duration.comeup.min": 10.0,
  "roa.oral.duration.comeup.max": 60.0,
  "roa.oral.duration.comeup.units": "minutes",
  "roa.oral.dose.light": null,
  "roa.oral.dose.common": null,
  "roa.oral.dose.strong": null,
  "roa.oral.duration.afterglow": null,
  "roa": null,
  "roa.oral.duration.peak": null,
  "roa.oral.duration.offset": null,
  "roa.oral": null,
  "roa.insufflated.name": "insufflated",
  "roa.insufflated.duration.comeup.min": 0.5,
  "roa.insufflated.duration.comeup.max": 2.0,
  "roa.insufflated.duration.comeup.units": "minutes",
  "roa.insufflated.duration.onset.min": 0.5,
  "roa.insufflated.duration.onset.max": 2.0,
  "roa.insufflated.duration.onset.units": "minutes",
  "roa.insufflated.duration.peak.min": 0.5,
  "roa.insufflated.duration.peak.max": 1.0,
  "roa.insufflated.duration.peak.units": "hours",
  "roa.insufflated.duration.offset.min": 6.0,
  "roa.insufflated.duration.offset.max": 10.0,
  "roa.insufflated.duration.offset.units": "hours",
  "roa.insufflated.duration.afterglow.min": 6.0,
  "roa.insufflated.duration.afterglow.max": 24.0,
  "roa.insufflated.duration.afterglow.units": "hours",
  "roa.insufflated.duration.total.min": 1.0,
  "roa.insufflated.duration.total.max": 2.5,
  "roa.insufflated.duration.total.units": "hours",
  "roa.insufflated.duration.duration": null,
  "roa.insufflated.dose.threshold": 2.5,
  "roa.insufflated.dose.light.min": 10.0,
  "roa.insufflated.dose.light.max": 25.0,
  "roa.insufflated.dose.common.min": 25.0,
  "roa.insufflated.dose.common.max": 40.0,
  "roa.insufflated.dose.strong.min": 40.0,
  "roa.insufflated.dose.strong.max": 80.0,
  "roa.insufflated.dose.heavy": 80.0,
  "roa.insufflated.dose.units": "mg",
  "roa.insufflated.duration.peak": null,
  "roa.insufflated.duration.offset": null,
  "roa.sublingual.name": null,
  "roa.sublingual.duration.comeup.min": null,
  "roa.sublingual.duration.comeup.max": null,
  "roa.sublingual.duration.comeup.units": null,
  "roa.sublingual.duration.onset.min": null,
  "roa.sublingual.duration.onset.max": null,
  "roa.sublingual.duration.onset.units": null,
  "roa.sublingual.duration.peak.min": null,
  "roa.sublingual.duration.peak.max": null,
  "roa.sublingual.duration.peak.units": null,
  "roa.sublingual.duration.offset.min": null,
  "roa.sublingual.duration.offset.max": null,
  "roa.sublingual.duration.offset.units": null,
  "roa.sublingual.duration.afterglow.min": null,
  "roa.sublingual.duration.afterglow.max": null,
  "roa.sublingual.duration.afterglow.units": null,
  "roa.sublingual.duration.total.min": null,
  "roa.sublingual.duration.total.max": null,
  "roa.sublingual.duration.total.units": null,
  "roa.sublingual.duration.duration": null,
  "roa.sublingual.dose.threshold": null,
  "roa.sublingual.dose.light": null,
  "roa.sublingual.dose.common": null,
  "roa.sublingual.dose.strong": null,
  "roa.sublingual.dose.heavy": null,
  "roa.sublingual.dose.units": null,
  "roa.sublingual.dose.light.min": null,
  "roa.sublingual.dose.light.max": null,
  "roa.sublingual.dose.common.min": null,
  "roa.sublingual.dose.common.max": null,
  "roa.sublingual.dose.strong.min": null,
  "roa.sublingual.dose.strong.max": null,
  "roa.insufflated.duration": null,
  "roa.sublingual.duration.peak": null,
  "roa.sublingual.duration.offset": null,
  "roa.sublingual.duration.afterglow": null,
  "roa.sublingual.duration.comeup": null,
  "class": null,
  "roa.insufflated.duration.comeup": null,
  "roa.insufflated.duration.afterglow": null,
  "roa.rectal.name": null,
  "roa.rectal.duration.comeup": null,
  "roa.rectal.duration.onset.min": null,
  "roa.rectal.duration.onset.max": null,
  "roa.rectal.duration.onset.units": null,
  "roa.rectal.duration.peak": null,
  "roa.rectal.duration.offset": null,
  "roa.rectal.duration.afterglow": null,
  "roa.rectal.duration.total.min": null,
  "roa.rectal.duration.total.max": null,
  "roa.rectal.duration.total.units": null,
  "roa.rectal.duration.duration": null,
  "roa.rectal.dose.threshold": null,
  "roa.rectal.dose.light.min": null,
  "roa.rectal.dose.light.max": null,
  "roa.rectal.dose.common.min": null,
  "roa.rectal.dose.common.max": null,
  "roa.rectal.dose.strong.min": null,
  "roa.rectal.dose.strong.max": null,
  "roa.rectal.dose.heavy": null,
  "roa.rectal.dose.units": null,
  "roa.insufflated.duration.total": null,
  "roa.oral.duration.onset": null,
  "roa.insufflated.duration.onset": null,
  "roa.smoked.name": null,
  "roa.smoked.duration.comeup": null,
  "roa.smoked.duration.onset": null,
  "roa.smoked.duration.peak": null,
  "roa.smoked.duration.offset": null,
  "roa.smoked.duration.afterglow": null,
  "roa.smoked.duration.total.min": null,
  "roa.smoked.duration.total.max": null,
  "roa.smoked.duration.total.units": null,
  "roa.smoked.duration.duration": null,
  "roa.smoked.dose.threshold": null,
  "roa.smoked.dose.light.min": null,
  "roa.smoked.dose.light.max": null,
  "roa.smoked.dose.common.min": null,
  "roa.smoked.dose.common.max": null,
  "roa.smoked.dose.strong.min": null,
  "roa.smoked.dose.strong.max": null,
  "roa.smoked.dose.heavy": null,
  "roa.smoked.dose.units": null,
  "roa.smoked.duration.onset.min": null,
  "roa.smoked.duration.onset.max": null,
  "roa.smoked.duration.onset.units": null,
  "roa.insufflated.dose.strong": null,
  "roa.oral.duration": null,
  "roa.smoked.duration.peak.min": null,
  "roa.smoked.duration.peak.max": null,
  "roa.smoked.duration.peak.units": null,
  "roa.smoked.duration.offset.min": null,
  "roa.smoked.duration.offset.max": null,
  "roa.smoked.duration.offset.units": null,
  "roa.smoked.duration.afterglow.min": null,
  "roa.smoked.duration.afterglow.max": null,
  "roa.smoked.duration.afterglow.units": null,
  "roa.smoked.dose.light": null,
  "roa.smoked.dose.strong": null,
  "roa.smoked.duration.comeup.min": null,
  "roa.smoked.duration.comeup.max": null,
  "roa.smoked.duration.comeup.units": null,
  "roa.smoked.duration": null,
  "roa.intravenous.name": null,
  "roa.intravenous.duration.comeup.min": null,
  "roa.intravenous.duration.comeup.max": null,
  "roa.intravenous.duration.comeup.units": null,
  "roa.intravenous.duration.onset.min": null,
  "roa.intravenous.duration.onset.max": null,
  "roa.intravenous.duration.onset.units": null,
  "roa.intravenous.duration.peak.min": null,
  "roa.intravenous.duration.peak.max": null,
  "roa.intravenous.duration.peak.units": null,
  "roa.intravenous.duration.offset.min": null,
  "roa.intravenous.duration.offset.max": null,
  "roa.intravenous.duration.offset.units": null,
  "roa.intravenous.duration.afterglow": null,
  "roa.intravenous.duration.total.min": null,
  "roa.intravenous.duration.total.max": null,
  "roa.intravenous.duration.total.units": null,
  "roa.intravenous.duration.duration": null,
  "roa.intravenous.dose.threshold": null,
  "roa.intravenous.dose.light.min": null,
  "roa.intravenous.dose.light.max": null,
  "roa.intravenous.dose.common.min": null,
  "roa.intravenous.dose.common.max": null,
  "roa.intravenous.dose.strong.min": null,
  "roa.intravenous.dose.strong.max": null,
  "roa.intravenous.dose.heavy": null,
  "roa.intravenous.dose.units": null,
  "roa.oral.dose": null,
  "roa.sublingual.dose": null,
  "roa.oral.duration.total": null,
  "roa.smoked.duration.total": null,
  "roa.transdermal.name": null,
  "roa.transdermal.duration.comeup": null,
  "roa.transdermal.duration.onset.min": null,
  "roa.transdermal.duration.onset.max": null,
  "roa.transdermal.duration.onset.units": null,
  "roa.transdermal.duration.peak": null,
  "roa.transdermal.duration.offset": null,
  "roa.transdermal.duration.afterglow": null,
  "roa.transdermal.duration.total.min": null,
  "roa.transdermal.duration.total.max": null,
  "roa.transdermal.duration.total.units": null,
  "roa.transdermal.duration.duration": null,
  "roa.transdermal.dose.threshold": null,
  "roa.transdermal.dose.light.min": null,
  "roa.transdermal.dose.light.max": null,
  "roa.transdermal.dose.common.min": null,
  "roa.transdermal.dose.common.max": null,
  "roa.transdermal.dose.strong.min": null,
  "roa.transdermal.dose.strong.max": null,
  "roa.transdermal.dose.heavy": null,
  "roa.transdermal.dose.units": null,
  "roa.intravenous.dose.light": null,
  "roa.intravenous.duration.comeup": null,
  "roa.intravenous.duration.offset": null,
  "roa.intravenous.duration.total": null,
  "roa.sublingual.duration": null,
  "roa.oral.duration.duration.min": null,
  "roa.oral.duration.duration.max": null,
  "roa.oral.duration.duration.units": null,
  "roa.rectal.duration.comeup.min": null,
  "roa.rectal.duration.comeup.max": null,
  "roa.rectal.duration.comeup.units": null,
  "roa.rectal.duration.peak.min": null,
  "roa.rectal.duration.peak.max": null,
  "roa.rectal.duration.peak.units": null,
  "roa.rectal.duration.offset.min": null,
  "roa.rectal.duration.offset.max": null,
  "roa.rectal.duration.offset.units": null,
  "roa.rectal.duration.afterglow.min": null,
  "roa.rectal.duration.afterglow.max": null,
  "roa.rectal.duration.afterglow.units": null,
  "roa.intravenous.duration.afterglow.min": null,
  "roa.intravenous.duration.afterglow.max": null,
  "roa.intravenous.duration.afterglow.units": null,
  "roa.insufflated.dose.light": null,
  "roa.intramuscular.name": null,
  "roa.intramuscular.duration.comeup": null,
  "roa.intramuscular.duration.onset.min": null,
  "roa.intramuscular.duration.onset.max": null,
  "roa.intramuscular.duration.onset.units": null,
  "roa.intramuscular.duration.peak": null,
  "roa.intramuscular.duration.offset": null,
  "roa.intramuscular.duration.afterglow": null,
  "roa.intramuscular.duration.total.min": null,
  "roa.intramuscular.duration.total.max": null,
  "roa.intramuscular.duration.total.units": null,
  "roa.intramuscular.duration.duration": null,
  "roa.intramuscular.dose.threshold": null,
  "roa.intramuscular.dose.light": null,
  "roa.intramuscular.dose.common.min": null,
  "roa.intramuscular.dose.common.max": null,
  "roa.intramuscular.dose.strong": null,
  "roa.intramuscular.dose.heavy": null,
  "roa.intramuscular.dose.units": null,
  "roa.intravenous.duration.peak": null,
  "roa.intravenous.dose.strong": null,
  "roa.buccal.name": null,
  "roa.buccal.duration.comeup.min": null,
  "roa.buccal.duration.comeup.max": null,
  "roa.buccal.duration.comeup.units": null,
  "roa.buccal.duration.onset.min": null,
  "roa.buccal.duration.onset.max": null,
  "roa.buccal.duration.onset.units": null,
  "roa.buccal.duration.peak.min": null,
  "roa.buccal.duration.peak.max": null,
  "roa.buccal.duration.peak.units": null,
  "roa.buccal.duration.offset.min": null,
  "roa.buccal.duration.offset.max": null,
  "roa.buccal.duration.offset.units": null,
  "roa.buccal.duration.afterglow.min": null,
  "roa.buccal.duration.afterglow.max": null,
  "roa.buccal.duration.afterglow.units": null,
  "roa.buccal.duration.total.min": null,
  "roa.buccal.duration.total.max": null,
  "roa.buccal.duration.total.units": null,
  "roa.buccal.duration.duration": null,
  "roa.buccal.dose.threshold": null,
  "roa.buccal.dose.light.min": null,
  "roa.buccal.dose.light.max": null,
  "roa.buccal.dose.common.min": null,
  "roa.buccal.dose.common.max": null,
  "roa.buccal.dose.strong.min": null,
  "roa.buccal.dose.strong.max": null,
  "roa.buccal.dose.heavy": null,
  "roa.buccal.dose.units": null,
  "roa.smoked.dose": null,
  "inchi": "InChI=1S/C8H10N4O2/c1-10-4-9-6-5(10)7(13)12(3)8(14)11(6)2/h4H,1-3H3",
  "synonyms": [
    "CAFFEINE ANHYDROUS [WHO-IP]",
    "Caffeine 100 microg/mL in Methanol",
    "Caffein",
    "1,7-Trimethyl-2,6-dioxopurine",
    "SCHEMBL5671",
    "Spectrum_001301",
    "CAFFEINE [HSDB]",
    "Caffedrine",
    "Caffeine solution, analytical standard, 1.0 mg/mL in methanol",
    "NCGC00090699-05",
    "Nodaca",
    "BRD-K02404261-001-07-6",
    "FEMCET COMPONENT CAFFEINE",
    "CAFFEINE COMPONENT OF FIORINAL",
    "CAFFEINE [IARC]",
    "Cafipel",
    "Cafecon",
    "BSPBio_001921",
    "DB-023002",
    "NCGC00090699-03",
    "LP00228",
    "NCGC00090699-02",
    "TRIAD COMPONENT CAFFEINE",
    "NSC 5036",
    "Coffeine",
    "N2379",
    "IDI1_000730",
    "ACon1_000085",
    "Caffeine, SAJ special grade, >=98.5%",
    "CAFFEINE COMPONENT OF FIORICET",
    "1,3,7-Trimethyl-3,7-dihydro-1H-purine-2,6-dione #",
    "Caffeine, BioXtra",
    "CAFFEINE [USP-RS]",
    "MLS001055341",
    "Caffeina",
    "CAFFEINE COMPONENT OF INVAGESIC FORTE",
    "CAFFEINE COMPONENT OF ANOQUAN",
    "KBio2_004349",
    "HSDB 36",
    "2a3b",
    "Caffeine, Pharmaceutical Secondary Standard; Certified Reference Material",
    "DB00201",
    "Anacin",
    "ESGIC COMPONENT CAFFEINE",
    "NSC755917",
    "TREZIX COMPONENT CAFFEINE",
    "HMS3372J18",
    "THEOPHYLLINE MONOHYDRATE IMPURITY A [EP IMPURITY]",
    "1H-Purine-2,6-dione, 3,7-dihydro-1,3,7-trimethyl-",
    "CAFFEINE [EP MONOGRAPH]",
    "HMS1920I09",
    "NCGC00015208-07",
    "Coffein [German]",
    "114303-55-8",
    "Hycomine",
    "Spectrum5_000423",
    "NCGC00090699-04",
    "NSC5036",
    "caffenium",
    "NCGC00260913-01",
    "SPBio_001222",
    "SK 65 Compound",
    "SMR000326667",
    "3,7-Dihydro-1,3,7-trimethyl-1H-purin-2,6-dion",
    "Caffeine, British Pharmacopoeia (BP) Reference Standard",
    "NCGC00254057-01",
    "BRD-K02404261-001-03-5",
    "Lopac-C-0750",
    "Caffeine (USP)",
    "SPECTRUM1500155",
    "Koffein [German]",
    "Coffein",
    "UNII-3G6A5W338E",
    "Caffeine Melting Point Standard, Pharmaceutical Secondary Standard; Certified Reference Material",
    "AC-12774",
    "Dexitac",
    "07E4FB58-FD79-4175-8E3D-05BF96954522",
    "CCG-38825",
    "NSC-755917",
    "INVAGESIC COMPONENT CAFFEINE",
    "N1379",
    "SDCCGMLS-0064595.P002",
    "CAFFEINE [II]",
    "DIMENHYDRINATE IMPURITY C",
    "ORPHENGESIC FORTE COMPONENT CAFFEINE",
    "CAFFEINE COMPONENT OF LANORINAL",
    "MIGERGOT COMPONENT CAFFEINE",
    "NCGC00015208-13",
    "Caffeine 2000 microg/mL in Water:Methanol (81:19 g/g)",
    "Refresh'n",
    "NCGC00090699-09",
    "NCGC00090699-08",
    "CAFFEINE COMPONENT OF DARVON COMPOUND",
    "Q60235",
    "Respia (TN)",
    "Miudol",
    "1,7-Trimethylxanthine",
    "CAFFEINE [FHFI]",
    "Caffeine 1.0 mg/ml in Methanol",
    "THEOPHYLLINE IMPURITY A [EP IMPURITY]",
    "CAFFEINE COMPONENT OF ORPHENGESIC",
    "AB00051930-09",
    "CAFFEINE COMPONENT OF ESGIC",
    "NCGC00015208-20",
    "Methyltheobromide",
    "1,3,7-trimethyl-3,7-dihydropurine-2,6-dione",
    "C 0750",
    "NoDoz Caplets and Chewable Tablets",
    "Bio1_000962",
    "DHC PLUS COMPONENT CAFFEINE",
    "Caffeinum",
    "CAFFEINE [FCC]",
    "CAFFEINE [INCI]",
    "HMS3260N17",
    "EU-0100228",
    "NCGC00168808-02",
    "1H-Purine-2, 3,7-dihydro-1,3,7-trimethyl-",
    "HMS3715D13",
    "Caffeine (natural)",
    "1,3,7-Trimethyl-3,7-dihydro-1H-purine-2,6-dione",
    "Monomethyl derivative of Theophylline",
    "NCGC00259234-01",
    "CAFFEINE [USP MONOGRAPH]",
    "3G6A5W338E",
    "Caffeine solution, 1.0 mg/mL in methanol, ampule of 1 mL, certified reference material",
    "component of P-A-C Compound (Salt/Mix)",
    "Z112207564",
    "NCGC00015208-10",
    "7-methyl Theophylline",
    "Durvitan",
    "HMS3435F10",
    "Alert-pep",
    "Pharmakon1600-01500155",
    "PDSP1_001016",
    "Kofein",
    "Cafeina",
    "CAFERGOT COMPONENT CAFFEINE",
    "Methylxanthine theophylline",
    "Tox21_500228",
    "Caffeine, powder, ReagentPlus(R)",
    "MLS001056714",
    "KBio1_000730",
    "CAFFEINE COMPONENT OF TRIAD",
    "3,3,7-trimethyl-1H-purine-2,6-dione",
    "Synalgos",
    "Mettler-Toledo Calibration substance ME 18872, Caffeine, analytical standard, for the calibration of the thermosystem 900, traceable to primary standards (LGC)",
    "Cafergot (Salt/Mix)",
    "AB00051930_10",
    "Caffeine, anhydrous",
    "DTXSID0020232",
    "1,3,7-trimethyl-1H-purine-2,6(3H,7H)-dione",
    "HMS2091O11",
    "Caffeine, PharmaGrade, EP, Manufactured under appropriate GMP controls for pharma or biopharmaceutical production",
    "DivK1c_000730",
    "3,7-Dihydro-1,3,7-trimethyl-1H-purine-2,6-dione",
    "NCGC00015208-12",
    "NINDS_000730",
    "Caffeine, anhydrous, 99%, FCC, FG",
    "BIM-0050216.0001",
    "caffeine",
    "Spectrum2_001261",
    "Probes2_000128",
    "NCGC00015208-18",
    "NCGC00015208-17",
    "SR-01000075187-1",
    "CAFFEINE [VANDF]",
    "CS-M0795",
    "CAFFEINE COMPONENT OF NORGESIC",
    "WLN: T56 BN DN FNVNVJ B1 F1 H1",
    "SR-01000075187-7",
    "1,3,7-trimethyl-2,3,6,7-tetrahydro-1H-purine-2,6-dione",
    "cafeine",
    "FT-0664195",
    "Xanthine,3,7-trimethyl",
    "Xanthine, 1,3,7-trimethyl",
    "5-26-13-00558 (Beilstein)",
    "Theophylline, 7-methyl",
    "KBioGR_002325",
    "SYNALGOS-DC-A COMPONENT CAFFEINE",
    "Methyltheobromine",
    "NSC-5036",
    "BIDD:PXR0172",
    "Caffeine, European Pharmacopoeia (EP) Reference Standard",
    "Caffeine",
    "HMS502E12",
    "NCGC00015208-15",
    "Caffeine for system suitability, European Pharmacopoeia (EP) Reference Standard",
    "CAFFEINE COMPONENT OF SYNALGOS-DC-A",
    "Stim",
    "SYNALGOS-DC COMPONENT CAFFEINE",
    "CAFFEINUM [HPUS]",
    "Caffeine melting point standard",
    "Tri-Aqua",
    "Anhydrous caffeine (TN)",
    "Anacin Maximum Strength",
    "GTPL407",
    "component of Dilone (Salt/Mix)",
    "Theine, methyltheobromine",
    "Bio1_000473",
    "AKOS000121334",
    "Caffeina [Italian]",
    "ANHYDROUS CAFFEINE [JAN]",
    "1, 3, 7-Trimethylxanthine",
    "Coffeinum",
    "Nix Nap",
    "Spectrum4_001782",
    "D00528",
    "CAFFEINE [MART.]",
    "NCGC00090699-01",
    "Caffeine, purum, anhydrous, >=99.0% (HPLC)",
    "BIDD:ER0554",
    "Thein",
    "NCGC00015208-06",
    "CAFFEINE ANHYDROUS",
    "SR-01000075187-8",
    "Theobromine, 1-methyl-",
    "FEMA No. 2224",
    "1l7x",
    "EXCEDRIN COMPONENT CAFFEINE",
    "P-A-C Analgesic Tablets",
    "Caffeine, Sigma Reference Standard, vial of 250 mg",
    "MFCD00005758",
    "CHEBI:27732",
    "1,3,7-Trimethylxanthine",
    "Monohydrate Caffeine",
    "CCRIS 1314",
    "FIORINAL COMPONENT CAFFEINE",
    "1,3,7-Trimethyl-2,6-dioxopurine",
    "NCGC00015208-11",
    "AI3-20154",
    "Melting point standard 235-237C, analytical standard",
    "L000155",
    "NCGC00015208-14",
    "Spectrum3_000321",
    "Eldiatric C",
    "bmse000206",
    "Mateina",
    "EINECS 200-362-1",
    "1l5q",
    "ORPHENGESIC COMPONENT CAFFEINE",
    "Quick-Pep",
    "component of A.S.A. Compound (Salt/Mix)",
    "Caffeine [BAN:JAN]",
    "1,3,7-Trimethylpurine-2,6-dione",
    "NCGC00090699-06",
    "SDCCGSBI-0050216.P005",
    "BRN 0017705",
    "1,3,7-trimethyl-2,6-dioxo-1,2,3,6-tetrahydropurine",
    "Theobromine Me",
    "Cafamil",
    "ZINC1084",
    "DSSTox_RID_75448",
    "MEGxp0_001350",
    "NCGC00015208-04",
    "NORGESIC COMPONENT CAFFEINE",
    "58-08-2",
    "BIDD:GT0632",
    "Tox21_201685",
    "CAFFEINE-D3",
    "Anhydrous caffeine (JP15)",
    "CAFFEINE COMPONENT OF DHC PLUS",
    "SK-65 Compound",
    "Caffeine, United States Pharmacopeia (USP) Reference Standard",
    "CAFFEINE COMPONENT OF MIGERGOT",
    "AS-15340",
    "Propoxyphene Compound 65 (Salt/Mix)",
    "HMS2232M13",
    "CAFFEINE COMPONENT OF WIGRAINE",
    "Tox21_300010",
    "1,3,7-trimethyl-1,3,7-trihydropurine-2,6-dione",
    "KBio2_001781",
    "CFF",
    "1-methyl-Theobromine",
    "caffeine (1,3,7-trimethylxanthine)",
    "SR-01000075187-4",
    "7-Methyltheophylline",
    "CAFFEINE COMPONENT OF FEMCET",
    "PDSP1_001235",
    "Propoxyphene Compound 65",
    "DIMENHYDRINATE IMPURITY C [EP IMPURITY]",
    "NCGC00015208-03",
    "CAFFEINE COMPONENT OF EXCEDRIN",
    "TNP00310",
    "F3371-0262",
    "NCGC00015208-29",
    "Vivarin",
    "Theine",
    "Caffeine hydrous",
    "No-Doz",
    "SR-01000075187",
    "SDCCGMLS-0064595.P001",
    "MEDIGESIC PLUS COMPONENT CAFFEINE",
    "CU-01000012617-3",
    "NCGC00168808-01",
    "NCIOpen2_008255",
    "CAFFEINE COMPONENT OF CAFERGOT",
    "DARVON COMPOUND COMPONENT CAFFEINE",
    "Caffeine 10 microg/mL in Methanol",
    "CAFFEINE [WHO-DD]",
    "NCI-C02733",
    "5-26-13-00558 (Beilstein Handbook Reference)",
    "CAFFEINE [ORANGE BOOK]",
    "Theophylline Me",
    "Tirend",
    "MLS001066409",
    "STK177283",
    "BRD-K02404261-001-02-7",
    "CAFFEINE COMPONENT OF ORPHENGESIC FORTE",
    "NCGC00015208-01",
    "CAFFEINE COMPONENT OF SYNALGOS-DC",
    "Phensal",
    "NCGC00015208-02",
    "NCGC00015208-08",
    "MolMap_000054",
    "C07481",
    "KBio2_006917",
    "CHEMBL113",
    "3,7-Dihydro-1,3,7-trimethyl-1H-purin-2,6-dion (coffein)",
    "Organex",
    "teina",
    "Caffeine [USP:BAN:JAN]",
    "SBI-0050216.P004",
    "C8H10N4O2",
    "Koffein",
    "CAFFEINE [MI]",
    "BDBM10849",
    "Lopac0_000228",
    "1-methyltheobromine",
    "Caffeine, meets USP testing specifications, anhydrous",
    "EC 200-362-1",
    "3,7-dihydro-1,3,7-trimethyl-1H-purine",
    "FIORICET COMPONENT CAFFEINE",
    "PDSP2_001219",
    "Caffeine, anhydrous, tested according to Ph.Eur.",
    "component of Percodan (Salt/Mix)",
    "COFFEINUM [WHO-IP LATIN]",
    "Probes1_000150",
    "Anhydrous caffeine (JP17)",
    "Bayer Select Headache Pain (Salt/Mix)",
    "ANOQUAN COMPONENT CAFFEINE",
    "WIGRAINE COMPONENT CAFFEINE",
    "Kofein [Czech]",
    "3,7-dihydro-1,3,7-trimethyl-1H-purine (9CI)",
    "Caffeine, synthetic",
    "3g6m",
    "DHCplus",
    "1gfz",
    "CAFFEINE COMPONENT OF MEDIGESIC PLUS",
    "Caffine",
    "INVAGESIC FORTE COMPONENT CAFFEINE",
    "NCGC00090699-07",
    "PDSP2_001000",
    "PENTOXIFYLLINE IMPURITY F [EP IMPURITY]",
    "DSSTox_GSID_20232",
    "CAFFEINE COMPONENT OF INVAGESIC",
    "Caffeine melting point standard, United States Pharmacopeia (USP) Reference Standard",
    "NCGC00015208-16",
    "Bio1_001451",
    "A.S.A. and Codeine Compound",
    "KBioSS_001781",
    "KBio3_001141",
    "CAS-58-08-2",
    "NCGC00015208-05",
    "Caffeine, certified reference material, TraceCERT(R)",
    "CAFFEINE [WHO-IP]",
    "LANORINAL COMPONENT CAFFEINE",
    "Guaranine",
    "DSSTox_CID_232",
    "Anhydrous caffeine"
  ],
  "svg": "Caffeine.svg"
}